# Projected DOS for atomic kind C at iteration step i = 0, E(Fermi) =    -0.089461 a.u.
#     MO Eigenvalue [a.u.]      Occupation                 s                py                pz                px               d-2               d-1                d0               d+1               d+2
       1         -0.785485        2.000000        0.85222631        0.00000000        0.00000000        0.00000000        0.00000000        0.00000000        0.14777369        0.00000000        0.00000000
       2         -0.762873        2.000000        0.50191335        0.10196084        0.00000000        0.30588233        0.00979692        0.00000000        0.07718093        0.00000000        0.00326564
       3         -0.762873        2.000000        0.50191338        0.40784317        0.00000000        0.00000000        0.00000000        0.00000000        0.07718093        0.00000000        0.01306252
       4         -0.762873        2.000000        0.50191335        0.10196086        0.00000000        0.30588234        0.00979688        0.00000000        0.07718093        0.00000000        0.00326564
       5         -0.762871        2.000000        0.50191087        0.10196150        0.00000000        0.30588432        0.00979694        0.00000000        0.07718072        0.00000000        0.00326564
       6         -0.762871        2.000000        0.50191093        0.40784580        0.00000000        0.00000000        0.00000000        0.00000000        0.07718072        0.00000000        0.01306254
       7         -0.762871        2.000000        0.50191090        0.10196152        0.00000000        0.30588432        0.00979689        0.00000000        0.07718072        0.00000000        0.00326565
       8         -0.717742        2.000000        0.38823116        0.40667789        0.00000000        0.13771692        0.02852929        0.00000000        0.02262133        0.00000000        0.01622342
       9         -0.717742        2.000000        0.38823116        0.00323651        0.00000000        0.54115829        0.01007054        0.00000000        0.02262133        0.00000000        0.03468217
      10         -0.717742        2.000000        0.38823096        0.40667804        0.00000000        0.13771697        0.02852928        0.00000000        0.02262133        0.00000000        0.01622342
      11         -0.717742        2.000000        0.38823096        0.00323651        0.00000000        0.54115850        0.01007054        0.00000000        0.02262133        0.00000000        0.03468217
      12         -0.717742        2.000000        0.38823120        0.40667789        0.00000000        0.13771696        0.02852920        0.00000000        0.02262132        0.00000000        0.01622343
      13         -0.717742        2.000000        0.38823100        0.40667805        0.00000000        0.13771701        0.02852920        0.00000000        0.02262132        0.00000000        0.01622343
      14         -0.695552        2.000000        0.37826923        0.20829999        0.00000000        0.33358784        0.04209438        0.00000000        0.01146383        0.00000000        0.02628473
      15         -0.695552        2.000000        0.37826928        0.33212831        0.00000000        0.20975955        0.02646886        0.00000000        0.01146383        0.00000000        0.04191017
      16         -0.695551        2.000000        0.37827001        0.27012176        0.00000000        0.27176547        0.03429317        0.00000000        0.01146384        0.00000000        0.03408575
      17         -0.695548        2.000000        0.37826710        0.27240434        0.00000000        0.26948532        0.03400560        0.00000000        0.01146369        0.00000000        0.03437395
      18         -0.695548        2.000000        0.37826825        0.20834877        0.00000000        0.33353991        0.04208846        0.00000000        0.01146370        0.00000000        0.02629091
      19         -0.695548        2.000000        0.37826829        0.33436175        0.00000000        0.20752697        0.02618716        0.00000000        0.01146369        0.00000000        0.04219214
      20         -0.631576        2.000000        0.39552862        0.23534880        0.00000000        0.27051414        0.03021076        0.00000000        0.00062934        0.00000000        0.06776833
      21         -0.631576        2.000000        0.39552865        0.22259900        0.00000000        0.28326390        0.03056066        0.00000000        0.00062934        0.00000000        0.06741845
      22         -0.631576        2.000000        0.39552866        0.28840232        0.00000000        0.21746057        0.08653874        0.00000000        0.00062934        0.00000000        0.01144036
      23         -0.631575        2.000000        0.39552603        0.23534516        0.00000000        0.27052218        0.03021035        0.00000000        0.00062934        0.00000000        0.06776694
      24         -0.631575        2.000000        0.39552608        0.22412476        0.00000000        0.28174251        0.03051823        0.00000000        0.00062934        0.00000000        0.06745908
      25         -0.631575        2.000000        0.39552609        0.28840265        0.00000000        0.21746461        0.08653724        0.00000000        0.00062934        0.00000000        0.01144007
      26         -0.631574        2.000000        0.39552982        0.23504234        0.00000000        0.27081866        0.03021940        0.00000000        0.00062933        0.00000000        0.06776045
      27         -0.631574        2.000000        0.39552986        0.24779207        0.00000000        0.25806889        0.02986949        0.00000000        0.00062933        0.00000000        0.06811036
      28         -0.631574        2.000000        0.39552987        0.28840122        0.00000000        0.21745974        0.08653936        0.00000000        0.00062933        0.00000000        0.01144050
      29         -0.631573        2.000000        0.39552732        0.23505219        0.00000000        0.27081299        0.03021866        0.00000000        0.00062933        0.00000000        0.06775951
      30         -0.631573        2.000000        0.39552738        0.24627254        0.00000000        0.25959257        0.02991079        0.00000000        0.00062933        0.00000000        0.06806739
      31         -0.631573        2.000000        0.39552739        0.28840128        0.00000000        0.21746382        0.08653795        0.00000000        0.00062933        0.00000000        0.01144023
      32         -0.606443        2.000000        0.47162046        0.08390055        0.00000000        0.25170164        0.14455831        0.00000000        0.00003293        0.00000000        0.04818610
      33         -0.606443        2.000000        0.47162056        0.33560228        0.00000000        0.00000000        0.00000000        0.00000000        0.00003293        0.00000000        0.19274423
      34         -0.606443        2.000000        0.47162054        0.08390048        0.00000000        0.25170183        0.14455812        0.00000000        0.00003293        0.00000000        0.04818611
      35         -0.560262        2.000000        0.23029505        0.19135852        0.00000000        0.57407562        0.00315425        0.00000000        0.00006514        0.00000000        0.00105142
      36         -0.560261        2.000000        0.23029518        0.76543405        0.00000000        0.00000000        0.00000000        0.00000000        0.00006514        0.00000000        0.00420563
      37         -0.560261        2.000000        0.23029514        0.19135846        0.00000000        0.57407562        0.00315422        0.00000000        0.00006514        0.00000000        0.00105141
      38         -0.546352        2.000000        0.43784295        0.23766426        0.00000000        0.23766425        0.04302027        0.00000000        0.00078804        0.00000000        0.04302023
      39         -0.546352        2.000000        0.43784294        0.23766428        0.00000000        0.23766427        0.04302025        0.00000000        0.00078804        0.00000000        0.04302022
      40         -0.546352        2.000000        0.43784300        0.23766387        0.00000000        0.23766473        0.04302013        0.00000000        0.00078804        0.00000000        0.04302023
      41         -0.546352        2.000000        0.43784299        0.23766388        0.00000000        0.23766476        0.04302012        0.00000000        0.00078804        0.00000000        0.04302022
      42         -0.500501        2.000000        0.31797572        0.39559148        0.00000000        0.21494481        0.04216029        0.00000000        0.00117676        0.00000000        0.02815094
      43         -0.500501        2.000000        0.31797573        0.10596648        0.00000000        0.50456980        0.02403757        0.00000000        0.00117676        0.00000000        0.04627366
      44         -0.500500        2.000000        0.31797599        0.40499938        0.00000000        0.20553669        0.04070209        0.00000000        0.00117676        0.00000000        0.02960909
      45         -0.500500        2.000000        0.31797892        0.39595198        0.00000000        0.21457917        0.04210470        0.00000000        0.00117679        0.00000000        0.02820844
      46         -0.500500        2.000000        0.31797893        0.10596471        0.00000000        0.50456643        0.02403906        0.00000000        0.00117679        0.00000000        0.04627409
      47         -0.500500        2.000000        0.31797921        0.40500165        0.00000000        0.20552924        0.04070197        0.00000000        0.00117680        0.00000000        0.02961114
      48         -0.500498        2.000000        0.31797837        0.41424320        0.00000000        0.19628988        0.03926926        0.00000000        0.00117680        0.00000000        0.03104249
      49         -0.500498        2.000000        0.31797838        0.10596813        0.00000000        0.50456495        0.02403789        0.00000000        0.00117680        0.00000000        0.04627386
      50         -0.500498        2.000000        0.31797866        0.40483462        0.00000000        0.20569822        0.04072735        0.00000000        0.00117681        0.00000000        0.02958435
      51         -0.500498        2.000000        0.31798117        0.41387746        0.00000000        0.19665083        0.03932620        0.00000000        0.00117683        0.00000000        0.03098751
      52         -0.500498        2.000000        0.31798118        0.10596541        0.00000000        0.50456288        0.02403948        0.00000000        0.00117683        0.00000000        0.04627423
      53         -0.500498        2.000000        0.31798149        0.40482701        0.00000000        0.20570100        0.04072885        0.00000000        0.00117684        0.00000000        0.02958481
      54         -0.459058        2.000000        0.00000000        0.48247272        0.00000000        0.48247201        0.01752768        0.00000000        0.00000000        0.00000000        0.01752759
      55         -0.459057        2.000000        0.00000000        0.48247267        0.00000000        0.48247196        0.01752773        0.00000000        0.00000000        0.00000000        0.01752764
      56         -0.437989        2.000000        0.26918296        0.30348149        0.00000000        0.31980797        0.05392085        0.00000000        0.00243858        0.00000000        0.05116815
      57         -0.437986        2.000000        0.26918459        0.22872780        0.00000000        0.39455988        0.06652463        0.00000000        0.00243863        0.00000000        0.03856447
      58         -0.437986        2.000000        0.26918470        0.38903376        0.00000000        0.23425386        0.03949614        0.00000000        0.00243864        0.00000000        0.06559290
      59         -0.437986        2.000000        0.26918295        0.24240892        0.00000000        0.38087930        0.06421847        0.00000000        0.00243865        0.00000000        0.04087170
      60         -0.437986        2.000000        0.26918307        0.38904212        0.00000000        0.23424601        0.03949534        0.00000000        0.00243866        0.00000000        0.06559480
      61         -0.437982        2.000000        0.26918484        0.31716877        0.00000000        0.30611739        0.05161346        0.00000000        0.00243874        0.00000000        0.05347681
      62         -0.377258        2.000000        0.06890635        0.35129377        0.00000000        0.52829670        0.02874309        0.00000000        0.00164919        0.00000000        0.02111090
      63         -0.377258        2.000000        0.06890663        0.31420486        0.00000000        0.56538538        0.02692688        0.00000000        0.00164920        0.00000000        0.02292705
      64         -0.377258        2.000000        0.06890663        0.61636042        0.00000000        0.26322982        0.01727335        0.00000000        0.00164920        0.00000000        0.03258059
      65         -0.377255        2.000000        0.06890744        0.35173162        0.00000000        0.52785798        0.02876438        0.00000000        0.00164919        0.00000000        0.02108940
      66         -0.377255        2.000000        0.06890769        0.38881982        0.00000000        0.49076958        0.03058055        0.00000000        0.00164919        0.00000000        0.01927317
      67         -0.377255        2.000000        0.06890769        0.61635925        0.00000000        0.26323015        0.01727334        0.00000000        0.00164919        0.00000000        0.03258038
      68         -0.377254        2.000000        0.06890666        0.35121824        0.00000000        0.52837046        0.02874008        0.00000000        0.00164929        0.00000000        0.02111528
      69         -0.377254        2.000000        0.06890691        0.31764134        0.00000000        0.56194716        0.02709577        0.00000000        0.00164930        0.00000000        0.02275952
      70         -0.377254        2.000000        0.06890691        0.61635861        0.00000000        0.26322989        0.01727407        0.00000000        0.00164930        0.00000000        0.03258123
      71         -0.377252        2.000000        0.06890833        0.35180539        0.00000000        0.52778190        0.02876871        0.00000000        0.00164929        0.00000000        0.02108638
      72         -0.377252        2.000000        0.06890855        0.38538172        0.00000000        0.49420541        0.03041295        0.00000000        0.00164930        0.00000000        0.01944208
      73         -0.377252        2.000000        0.06890855        0.61635834        0.00000000        0.26322879        0.01727399        0.00000000        0.00164930        0.00000000        0.03258103
      74         -0.374325        2.000000        0.25105585        0.11820142        0.00000000        0.53750076        0.08521550        0.00000000        0.00248607        0.00000000        0.00554039
      75         -0.374325        2.000000        0.25105582        0.43267359        0.00000000        0.22302863        0.02545942        0.00000000        0.00248607        0.00000000        0.06529648
      76         -0.374325        2.000000        0.25105594        0.43267578        0.00000000        0.22302631        0.02545916        0.00000000        0.00248608        0.00000000        0.06529673
      77         -0.374324        2.000000        0.25105607        0.11820128        0.00000000        0.53750063        0.08521555        0.00000000        0.00248609        0.00000000        0.00554039
      78         -0.374324        2.000000        0.25105604        0.43267346        0.00000000        0.22302847        0.02545942        0.00000000        0.00248609        0.00000000        0.06529651
      79         -0.374324        2.000000        0.25105616        0.43267565        0.00000000        0.22302617        0.02545917        0.00000000        0.00248610        0.00000000        0.06529676
      80         -0.349270        2.000000        0.00000000        0.00000000        1.00000000        0.00000000        0.00000000        0.00000000        0.00000000        0.00000000        0.00000000
      81         -0.322604        2.000000        0.00000000        0.00000000        0.94687713        0.00000000        0.00000000        0.01328072        0.00000000        0.03984215        0.00000000
      82         -0.322604        2.000000        0.00000000        0.00000000        0.94687713        0.00000000        0.00000000        0.05312287        0.00000000        0.00000000        0.00000000
      83         -0.322604        2.000000        0.00000000        0.00000000        0.94687713        0.00000000        0.00000000        0.01328072        0.00000000        0.03984215        0.00000000
      84         -0.322603        2.000000        0.00000000        0.00000000        0.94687688        0.00000000        0.00000000        0.05312312        0.00000000        0.00000000        0.00000000
      85         -0.322603        2.000000        0.00000000        0.00000000        0.94687688        0.00000000        0.00000000        0.01328078        0.00000000        0.03984234        0.00000000
      86         -0.322603        2.000000        0.00000000        0.00000000        0.94687688        0.00000000        0.00000000        0.01328078        0.00000000        0.03984234        0.00000000
      87         -0.320780        2.000000        0.00000001        0.74254647        0.00000000        0.24751589        0.00248440        0.00000000        0.00000000        0.00000000        0.00745323
      88         -0.320780        2.000000        0.00000001        0.00000023        0.00000000        0.99006212        0.00993762        0.00000000        0.00000000        0.00000000        0.00000001
      89         -0.320779        2.000000        0.00000001        0.74254665        0.00000000        0.24751571        0.00248441        0.00000000        0.00000000        0.00000000        0.00745322
      90         -0.320252        2.000000        0.02764994        0.28661178        0.00000000        0.58482292        0.04579928        0.00000000        0.00194190        0.00000000        0.05317417
      91         -0.320252        2.000000        0.02765000        0.28661182        0.00000000        0.58482270        0.04579931        0.00000000        0.00194191        0.00000000        0.05317426
      92         -0.320252        2.000000        0.02764999        0.28661417        0.00000000        0.58482031        0.04579909        0.00000000        0.00194190        0.00000000        0.05317453
      93         -0.320252        2.000000        0.02764999        0.73392790        0.00000000        0.13750659        0.05686177        0.00000000        0.00194190        0.00000000        0.04211185
      94         -0.320252        2.000000        0.02765005        0.28661421        0.00000000        0.58482008        0.04579912        0.00000000        0.00194192        0.00000000        0.05317463
      95         -0.320252        2.000000        0.02765004        0.73392755        0.00000000        0.13750675        0.05686190        0.00000000        0.00194192        0.00000000        0.04211185
      96         -0.299169        2.000000        0.00000000        0.35810047        0.00000000        0.59697876        0.02807797        0.00000000        0.00000000        0.00000000        0.01684279
      97         -0.299169        2.000000        0.00000000        0.58707630        0.00000000        0.36800293        0.01730855        0.00000000        0.00000000        0.00000000        0.02761223
      98         -0.299168        2.000000        0.00000000        0.46567673        0.00000000        0.48940270        0.02301824        0.00000000        0.00000000        0.00000000        0.02190233
      99         -0.299163        2.000000        0.00000000        0.48744169        0.00000000        0.46763675        0.02199502        0.00000000        0.00000000        0.00000000        0.02292654
     100         -0.299161        2.000000        0.00000000        0.35809979        0.00000000        0.59697882        0.02807848        0.00000000        0.00000000        0.00000000        0.01684291
     101         -0.299161        2.000000        0.00000000        0.60884182        0.00000000        0.34623678        0.01628495        0.00000000        0.00000000        0.00000000        0.02863645
     102         -0.287221        2.000000        0.12533050        0.18698763        0.00000000        0.56096286        0.09322323        0.00000000        0.00242137        0.00000000        0.03107441
     103         -0.287220        2.000000        0.12533070        0.74795025        0.00000000        0.00000000        0.00000000        0.00000000        0.00242138        0.00000000        0.12429766
     104         -0.287220        2.000000        0.12533070        0.18698437        0.00000000        0.56096588        0.09322359        0.00000000        0.00242138        0.00000000        0.03107407
     105         -0.287215        2.000000        0.12533194        0.18698675        0.00000000        0.56096024        0.09322465        0.00000000        0.00242154        0.00000000        0.03107489
     106         -0.287214        2.000000        0.12533209        0.74794681        0.00000000        0.00000000        0.00000000        0.00000000        0.00242155        0.00000000        0.12429954
     107         -0.287214        2.000000        0.12533210        0.18698424        0.00000000        0.56096257        0.09322492        0.00000000        0.00242155        0.00000000        0.03107462
     108         -0.271053        2.000000        0.00000000        0.00000000        0.87979312        0.00000000        0.00000000        0.08863762        0.00000000        0.03156926        0.00000000
     109         -0.271053        2.000000        0.00000000        0.00000000        0.87979312        0.00000000        0.00000000        0.00303507        0.00000000        0.11717181        0.00000000
     110         -0.271053        2.000000        0.00000000        0.00000000        0.87979312        0.00000000        0.00000000        0.08863762        0.00000000        0.03156926        0.00000000
     111         -0.271053        2.000000        0.00000000        0.00000000        0.87979312        0.00000000        0.00000000        0.08863762        0.00000000        0.03156926        0.00000000
     112         -0.271053        2.000000        0.00000000        0.00000000        0.87979312        0.00000000        0.00000000        0.08863762        0.00000000        0.03156926        0.00000000
     113         -0.271053        2.000000        0.00000000        0.00000000        0.87979312        0.00000000        0.00000000        0.00303507        0.00000000        0.11717180        0.00000000
     114         -0.247057        2.000000        0.00000000        0.00000000        0.86420375        0.00000000        0.00000000        0.08507097        0.00000000        0.05072528        0.00000000
     115         -0.247057        2.000000        0.00000000        0.00000000        0.86420375        0.00000000        0.00000000        0.05068325        0.00000000        0.08511300        0.00000000
     116         -0.247057        2.000000        0.00000000        0.00000000        0.86420349        0.00000000        0.00000000        0.06796368        0.00000000        0.06783284        0.00000000
     117         -0.247055        2.000000        0.00000000        0.00000000        0.86420320        0.00000000        0.00000000        0.06794043        0.00000000        0.06785636        0.00000000
     118         -0.247054        2.000000        0.00000000        0.00000000        0.86420295        0.00000000        0.00000000        0.08529563        0.00000000        0.05050142        0.00000000
     119         -0.247054        2.000000        0.00000000        0.00000000        0.86420295        0.00000000        0.00000000        0.05043599        0.00000000        0.08536105        0.00000000
     120         -0.244469        2.000000        0.00000000        0.00000000        0.00000000        0.89418102        0.10581898        0.00000000        0.00000000        0.00000000        0.00000000
     121         -0.244469        2.000000        0.00000000        0.67063793        0.00000000        0.22354310        0.02645450        0.00000000        0.00000000        0.00000000        0.07936448
     122         -0.244469        2.000000        0.00000000        0.67063574        0.00000000        0.22354523        0.02645476        0.00000000        0.00000000        0.00000000        0.07936427
     123         -0.244465        2.000000        0.00000000        0.00000000        0.00000000        0.89418081        0.10581919        0.00000000        0.00000000        0.00000000        0.00000000
     124         -0.244465        2.000000        0.00000000        0.67063847        0.00000000        0.22354235        0.02645447        0.00000000        0.00000000        0.00000000        0.07936472
     125         -0.244465        2.000000        0.00000000        0.67063558        0.00000000        0.22354517        0.02645481        0.00000000        0.00000000        0.00000000        0.07936444
     126         -0.206411        2.000000        0.00000000        0.21787911        0.00000000        0.65524367        0.09521627        0.00000000        0.00000000        0.00000000        0.03166095
     127         -0.206410        2.000000        0.00000000        0.65524358        0.00000000        0.21787908        0.03166098        0.00000000        0.00000000        0.00000000        0.09521636
     128         -0.180121        2.000000        0.00000000        0.00000000        0.84585156        0.00000000        0.00000000        0.07626853        0.00000000        0.07787991        0.00000000
     129         -0.180121        2.000000        0.00000000        0.00000000        0.84585156        0.00000000        0.00000000        0.08012622        0.00000000        0.07402222        0.00000000
     130         -0.180121        2.000000        0.00000000        0.00000000        0.84585156        0.00000000        0.00000000        0.07556115        0.00000000        0.07858729        0.00000000
     131         -0.180120        2.000000        0.00000000        0.00000000        0.84585193        0.00000000        0.00000000        0.07553504        0.00000000        0.07861303        0.00000000
     132         -0.180120        2.000000        0.00000000        0.00000000        0.84585192        0.00000000        0.00000000        0.07482767        0.00000000        0.07932041        0.00000000
     133         -0.180120        2.000000        0.00000000        0.00000000        0.84585192        0.00000000        0.00000000        0.08012616        0.00000000        0.07402192        0.00000000
     134         -0.180120        2.000000        0.00000000        0.00000000        0.84585086        0.00000000        0.00000000        0.07556160        0.00000000        0.07858753        0.00000000
     135         -0.180120        2.000000        0.00000000        0.00000000        0.84585086        0.00000000        0.00000000        0.07592008        0.00000000        0.07822905        0.00000000
     136         -0.180120        2.000000        0.00000000        0.00000000        0.84585086        0.00000000        0.00000000        0.08012645        0.00000000        0.07402269        0.00000000
     137         -0.180119        2.000000        0.00000000        0.00000000        0.84585122        0.00000000        0.00000000        0.07517693        0.00000000        0.07897185        0.00000000
     138         -0.180119        2.000000        0.00000000        0.00000000        0.84585122        0.00000000        0.00000000        0.08012639        0.00000000        0.07402239        0.00000000
     139         -0.180119        2.000000        0.00000000        0.00000000        0.84585122        0.00000000        0.00000000        0.07553541        0.00000000        0.07861337        0.00000000
     140         -0.170751        2.000000        0.00000000        0.00000000        0.87312699        0.00000000        0.00000000        0.12687300        0.00000000        0.00000000        0.00000000
     141         -0.170751        2.000000        0.00000000        0.00000000        0.87312699        0.00000000        0.00000000        0.03171825        0.00000000        0.09515476        0.00000000
     142         -0.170751        2.000000        0.00000000        0.00000000        0.87312701        0.00000000        0.00000000        0.03171825        0.00000000        0.09515474        0.00000000
     143         -0.089461        1.000007        0.00000000        0.00000000        0.83627362        0.00000000        0.00000000        0.08186318        0.00000000        0.08186319        0.00000000
     144         -0.089461        1.000002        0.00000000        0.00000000        0.83627363        0.00000000        0.00000000        0.08186318        0.00000000        0.08186319        0.00000000