# Projected DOS for list 1 of 12 atoms, at iteration step i = 0, E(Fermi) =     0.033663 a.u.
#     MO Eigenvalue [a.u.]      Occupation                 s                py                pz                px               d-2               d-1                d0               d+1               d+2               f-3               f-2               f-1                f0               f+1               f+2               f+3
       1         -2.358572        1.000000        0.90590960        0.01755565        0.03178871        0.01683424        0.00222260        0.00340015        0.01427156        0.00372231        0.00263538        0.00000865        0.00000253        0.00000388        0.00000216        0.00000331        0.00000233        0.00000044
       2         -2.357582        1.000000        0.89070570        0.01721420        0.03249785        0.02427730        0.01091963        0.00279072        0.00855951        0.00466488        0.00732273        0.00000599        0.00000318        0.00000956        0.00000015        0.00001636        0.00000167        0.00011366
       3         -2.357500        1.000000        0.89065796        0.02390024        0.03251800        0.01758347        0.00755854        0.00482502        0.00855372        0.00262950        0.01072106        0.00000594        0.00000156        0.00001573        0.00000015        0.00000978        0.00000331        0.00011415
       4         -1.385249        1.000000        0.03575148        0.09181016        0.75701201        0.09338011        0.00071716        0.00431053        0.01024277        0.00437338        0.00070140        0.00004501        0.00001295        0.00000005        0.00013904        0.00000010        0.00001207        0.00000004
       5         -1.383079        1.000000        0.03424857        0.05189865        0.82783895        0.06145608        0.00190091        0.00428609        0.00726902        0.00725550        0.00132015        0.00000080        0.00006522        0.00009260        0.00003300        0.00021707        0.00005905        0.00014338
       6         -1.383017        1.000000        0.03426303        0.06239172        0.82771427        0.05105009        0.00131648        0.00728860        0.00727136        0.00425662        0.00190625        0.00000077        0.00005882        0.00021766        0.00003321        0.00009253        0.00006541        0.00014392
       7         -1.369868        1.000000        0.02904025        0.51336362        0.03710897        0.40202491        0.00348828        0.00268694        0.00413148        0.00168877        0.00527751        0.00000565        0.00001395        0.00024270        0.00000426        0.00023836        0.00001377        0.00026340
       8         -1.369833        1.000000        0.02906184        0.40085430        0.03743038        0.51419626        0.00522917        0.00169059        0.00413607        0.00269922        0.00349815        0.00000544        0.00001419        0.00023482        0.00000403        0.00024621        0.00001380        0.00026863
       9         -1.367479        1.000000        0.01658691        0.38932547        0.18932080        0.38431372        0.00213669        0.00358636        0.00545327        0.00359208        0.00209893        0.00003260        0.00002672        0.00031021        0.00000204        0.00030129        0.00002676        0.00000000
      10         -1.361157        1.000000        0.00000116        0.48514818        0.00000677        0.49374628        0.00823510        0.00206958        0.00000029        0.00208323        0.00824448        0.00000000        0.00000066        0.00003753        0.00000000        0.00003718        0.00000071        0.00033959
      11         -1.358470        1.000000        0.01006280        0.20168367        0.07681648        0.69153507        0.00552901        0.00178400        0.00383533        0.00343678        0.00165368        0.00001485        0.00000453        0.00014218        0.00001875        0.00057523        0.00000291        0.00093140
      12         -1.358374        1.000000        0.01005726        0.69408179        0.07715884        0.19881278        0.00163510        0.00345384        0.00384113        0.00176965        0.00550889        0.00001459        0.00000282        0.00057594        0.00001868        0.00014256        0.00000465        0.00093597
      13         -0.727674        1.000000        0.34191861        0.00223272        0.02370727        0.00218295        0.00064301        0.00499546        0.00418229        0.00489325        0.00064293        0.00136786        0.00063022        0.00264952        0.00011470        0.00260514        0.00064703        0.00000003
      14         -0.722733        1.000000        0.36319769        0.01192914        0.02059435        0.00224442        0.00037995        0.01792449        0.01120507        0.00440823        0.00387570        0.00084666        0.00129924        0.00321464        0.00051211        0.00155319        0.00198321        0.00029843
      15         -0.722707        1.000000        0.36308224        0.00221245        0.02058037        0.01191986        0.00387564        0.00435193        0.01119211        0.01796433        0.00037927        0.00084606        0.00199739        0.00152724        0.00051001        0.00324427        0.00128064        0.00029953
      16         -0.716038        1.000000        0.11444596        0.00046170        0.00466906        0.00040966        0.00005934        0.00112364        0.00014485        0.00097869        0.00005398        0.00127595        0.00009563        0.00120982        0.00017502        0.00112022        0.00012137        0.00000011
      17         -0.714816        1.000000        0.11376319        0.00085858        0.00490574        0.00346119        0.00126190        0.00158968        0.00274844        0.00419759        0.00018813        0.00027668        0.00058126        0.00050394        0.00018834        0.00149322        0.00043048        0.00010172
      18         -0.714786        1.000000        0.11382331        0.00346199        0.00490319        0.00087112        0.00018206        0.00414856        0.00275502        0.00163070        0.00126311        0.00027734        0.00044194        0.00146143        0.00018871        0.00054232        0.00057409        0.00010126
      19         -0.711850        1.000000        0.02267247        0.00082757        0.00091647        0.00011437        0.00002083        0.00100374        0.00057831        0.00015987        0.00020531        0.00006225        0.00008250        0.00032476        0.00004355        0.00021173        0.00023087        0.00002374
      20         -0.711821        1.000000        0.02352644        0.00011788        0.00095002        0.00085439        0.00021376        0.00016584        0.00059848        0.00103534        0.00002187        0.00006441        0.00023640        0.00021497        0.00004483        0.00033911        0.00008565        0.00002464
      21         -0.706489        1.000000        0.76016820        0.02029133        0.00159417        0.02032462        0.02486018        0.00324911        0.04918804        0.00325259        0.02489183        0.03892578        0.00148591        0.00096813        0.00314596        0.00096811        0.00148769        0.00000001
      22         -0.705863        1.000000        0.00248374        0.00007963        0.00004411        0.00007814        0.00007983        0.00008250        0.00007210        0.00008043        0.00008001        0.00004098        0.00000018        0.00000149        0.00000232        0.00000117        0.00000025        0.00000000
      23         -0.705676        1.000000        0.00000281        0.00000145        0.00000001        0.00000139        0.00000304        0.00000644        0.00000022        0.00000628        0.00000296        0.00000013        0.00000937        0.00000212        0.00000001        0.00000200        0.00000923        0.00000219
      24         -0.698438        1.000000        0.00354949        0.00003259        0.00007550        0.00010032        0.00004777        0.00006041        0.00005239        0.00010750        0.00000709        0.00000401        0.00000720        0.00000775        0.00000397        0.00010098        0.00000449        0.00000656
      25         -0.698421        1.000000        0.00351600        0.00010484        0.00007471        0.00002673        0.00000494        0.00011153        0.00005187        0.00005257        0.00004901        0.00000399        0.00000370        0.00010064        0.00000400        0.00000672        0.00000808        0.00000654
      26         -0.697361        1.000000        0.10293844        0.00246704        0.00195303        0.00236282        0.00184693        0.00232282        0.00255962        0.00218500        0.00186926        0.00025203        0.00037497        0.00064417        0.00000901        0.00060881        0.00040300        0.00000004
      27         -0.696226        1.000000        0.03217822        0.00029005        0.00065145        0.00097941        0.00044790        0.00057188        0.00051934        0.00099168        0.00005920        0.00008318        0.00012027        0.00008017        0.00004052        0.00095310        0.00010394        0.00002823
      28         -0.696186        1.000000        0.03268709        0.00094824        0.00066034        0.00034256        0.00007494        0.00093243        0.00052879        0.00064136        0.00043903        0.00008462        0.00011883        0.00095046        0.00004154        0.00009667        0.00010988        0.00002877
      29         -0.691933        1.000000        0.02797612        0.00206550        0.00039331        0.00023808        0.00040182        0.00068187        0.00012751        0.00005468        0.00076788        0.00020976        0.00002244        0.00070221        0.00009065        0.00060860        0.00024391        0.00009493
      30         -0.691881        1.000000        0.02831065        0.00023988        0.00039783        0.00207335        0.00076490        0.00005378        0.00012929        0.00068239        0.00040957        0.00021168        0.00024413        0.00060600        0.00009072        0.00071441        0.00002252        0.00009651
      31         -0.689839        1.000000        0.00386848        0.00024223        0.00002485        0.00026312        0.00016935        0.00003351        0.00000123        0.00003772        0.00016596        0.00004388        0.00001081        0.00007896        0.00001247        0.00007922        0.00000919        0.00002254
      32         -0.689833        1.000000        0.00412951        0.00027621        0.00002636        0.00026373        0.00017710        0.00003857        0.00000129        0.00003623        0.00018232        0.00004681        0.00001004        0.00008297        0.00001320        0.00008469        0.00001064        0.00002370
      33         -0.688108        1.000000        0.71827819        0.07503716        0.00031678        0.04541808        0.04417126        0.00613908        0.00810589        0.00526041        0.04836356        0.00600199        0.00142287        0.00850391        0.00113299        0.00667184        0.00150854        0.00297006
      34         -0.688072        1.000000        0.71836750        0.04537632        0.00031740        0.07516198        0.04821445        0.00525649        0.00809635        0.00620596        0.04414190        0.00600617        0.00151286        0.00668024        0.00112799        0.00849913        0.00142006        0.00300407
      35         -0.687194        1.000000        0.02838912        0.00044974        0.00021135        0.00040194        0.00020522        0.00107038        0.00118077        0.00104145        0.00023767        0.00000557        0.00003676        0.00005030        0.00001552        0.00005321        0.00004013        0.00000001
      36         -0.684126        1.000000        0.00001144        0.00000936        0.00000010        0.00000888        0.00001133        0.00003027        0.00000026        0.00002941        0.00001237        0.00000000        0.00003591        0.00000911        0.00000000        0.00000915        0.00003469        0.00000660
      37         -0.683659        1.000000        0.06298685        0.00113829        0.00054694        0.00112790        0.00058176        0.00155294        0.00155456        0.00154578        0.00058576        0.00000305        0.00029698        0.00034558        0.00001252        0.00034489        0.00029855        0.00000000
      38         -0.681480        1.000000        0.00484055        0.00008410        0.00003548        0.00008544        0.00004024        0.00013884        0.00015325        0.00013914        0.00003943        0.00000124        0.00002244        0.00001892        0.00000214        0.00001918        0.00002202        0.00000000
      39         -0.680880        1.000000        0.00000027        0.00000010        0.00000000        0.00000011        0.00000015        0.00000029        0.00000001        0.00000031        0.00000014        0.00000000        0.00000041        0.00000009        0.00000000        0.00000009        0.00000046        0.00000018
      40         -0.680054        1.000000        0.00170572        0.00005398        0.00000477        0.00013683        0.00009706        0.00007477        0.00004771        0.00015524        0.00005139        0.00001827        0.00002576        0.00000021        0.00000051        0.00004979        0.00001395        0.00001868
      41         -0.680030        1.000000        0.00166712        0.00013372        0.00000468        0.00005347        0.00005048        0.00015433        0.00004757        0.00007371        0.00009496        0.00001774        0.00001371        0.00004908        0.00000049        0.00000026        0.00002580        0.00001823
      42         -0.677569        1.000000        0.02621949        0.00043353        0.00015601        0.00043449        0.00011552        0.00164396        0.00257750        0.00165669        0.00011594        0.00002909        0.00011154        0.00000040        0.00008951        0.00000047        0.00011113        0.00000000
      43         -0.676254        1.000000        0.02238673        0.00020228        0.00019347        0.00080059        0.00031978        0.00027425        0.00047014        0.00054575        0.00003882        0.00007816        0.00006844        0.00009413        0.00001898        0.00098489        0.00003612        0.00001956
      44         -0.676235        1.000000        0.02277188        0.00081667        0.00019596        0.00020560        0.00003985        0.00055172        0.00048114        0.00027376        0.00032403        0.00007850        0.00003641        0.00100112        0.00001959        0.00009614        0.00007080        0.00001983
      45         -0.674797        1.000000        0.00905833        0.00030630        0.00007282        0.00017520        0.00007265        0.00014995        0.00028319        0.00005926        0.00011445        0.00000066        0.00001405        0.00030441        0.00000684        0.00010620        0.00010436        0.00000478
      46         -0.674766        1.000000        0.00929455        0.00017800        0.00007511        0.00031345        0.00011723        0.00005999        0.00028923        0.00015198        0.00007316        0.00000080        0.00010543        0.00010761        0.00000694        0.00031350        0.00001425        0.00000497
      47         -0.673320        1.000000        0.01963316        0.00040682        0.00012949        0.00040844        0.00015424        0.00047945        0.00075712        0.00048475        0.00015411        0.00000752        0.00018256        0.00010501        0.00000926        0.00010591        0.00018152        0.00000000
      48         -0.673031        1.000000        0.00535341        0.00006797        0.00004297        0.00018434        0.00006558        0.00004402        0.00014237        0.00008464        0.00001718        0.00001400        0.00002168        0.00004432        0.00000465        0.00021847        0.00000614        0.00000691
      49         -0.673016        1.000000        0.00529942        0.00018277        0.00004234        0.00006741        0.00001706        0.00008292        0.00014156        0.00004374        0.00006472        0.00001384        0.00000607        0.00021647        0.00000465        0.00004413        0.00002146        0.00000680
      50         -0.669813        1.000000        0.00358167        0.00013617        0.00002828        0.00003625        0.00000700        0.00005780        0.00010845        0.00002652        0.00004815        0.00001220        0.00000061        0.00017204        0.00000327        0.00001962        0.00001116        0.00000833
      51         -0.669807        1.000000        0.00352081        0.00003561        0.00002794        0.00013361        0.00004746        0.00002604        0.00010609        0.00005830        0.00000682        0.00001215        0.00001075        0.00001952        0.00000313        0.00016901        0.00000055        0.00000830
      52         -0.668499        1.000000        0.00006175        0.00000611        0.00000522        0.00000600        0.00000147        0.00004665        0.00009966        0.00004558        0.00000140        0.00000053        0.00000096        0.00001282        0.00000856        0.00001340        0.00000099        0.00000000
      53         -0.663596        1.000000        0.00051825        0.00001501        0.00000950        0.00002618        0.00000694        0.00000190        0.00005005        0.00000287        0.00000446        0.00000105        0.00000440        0.00000908        0.00000282        0.00002188        0.00000307        0.00000007
      54         -0.663590        1.000000        0.00049992        0.00002520        0.00000927        0.00001457        0.00000435        0.00000301        0.00004845        0.00000152        0.00000663        0.00000104        0.00000317        0.00002128        0.00000274        0.00000850        0.00000398        0.00000007
      55         -0.662706        1.000000        0.00000116        0.00002618        0.00000002        0.00002667        0.00002004        0.00005789        0.00000010        0.00006069        0.00001993        0.00000000        0.00005332        0.00001460        0.00000000        0.00001692        0.00005420        0.00000767
      56         -0.662123        1.000000        0.00326649        0.00006705        0.00012478        0.00006139        0.00006589        0.00092720        0.00180542        0.00090629        0.00006794        0.00001897        0.00006124        0.00035661        0.00028284        0.00033990        0.00005874        0.00000000
      57         -0.661924        1.000000        0.00327498        0.00021688        0.00008271        0.00017813        0.00005006        0.00024045        0.00052885        0.00019814        0.00005368        0.00000052        0.00002824        0.00013190        0.00003244        0.00012375        0.00006718        0.00000238
      58         -0.661917        1.000000        0.00330647        0.00018048        0.00008278        0.00021688        0.00005412        0.00018691        0.00052975        0.00025088        0.00005045        0.00000051        0.00006600        0.00012138        0.00003215        0.00013662        0.00002974        0.00000239
      59         -0.659664        1.000000        0.07639585        0.00084566        0.00479532        0.00207807        0.00066056        0.00047352        0.00639670        0.00223981        0.00021243        0.00003079        0.00007440        0.00059798        0.00040488        0.00272962        0.00007417        0.00003122
      60         -0.659655        1.000000        0.07821183        0.00213147        0.00493576        0.00084753        0.00021438        0.00231358        0.00656752        0.00047845        0.00067240        0.00003078        0.00007776        0.00279264        0.00041936        0.00060021        0.00007585        0.00003195
      61         -0.658786        1.000000        0.08163894        0.00088360        0.00667716        0.00092800        0.00049831        0.00169494        0.00641909        0.00176089        0.00048435        0.00003067        0.00001081        0.00100362        0.00105539        0.00104856        0.00000878        0.00000002
      62         -0.658232        1.000000        0.00063843        0.00000673        0.00005746        0.00000891        0.00000274        0.00001292        0.00005156        0.00002945        0.00000245        0.00000009        0.00000460        0.00000397        0.00000448        0.00001267        0.00000041        0.00000065
      63         -0.658071        1.000000        0.62038562        0.00611855        0.05756192        0.00756885        0.00211590        0.01889891        0.05013879        0.02413272        0.00177189        0.00004088        0.00205847        0.00646764        0.00411859        0.00815885        0.00171025        0.00024188
      64         -0.658040        1.000000        0.62182063        0.00791925        0.05769220        0.00578077        0.00172246        0.02537628        0.05018819        0.01765442        0.00219633        0.00004523        0.00162335        0.00856985        0.00417524        0.00609688        0.00212804        0.00024049
      65         -0.657905        1.000000        0.67835466        0.00443659        0.06610551        0.00514212        0.00295451        0.01941863        0.04840601        0.02187727        0.00278651        0.00037837        0.00096657        0.00565849        0.00970114        0.00644250        0.00078415        0.00000669
      66         -0.656953        1.000000        0.00619473        0.00005403        0.00061358        0.00010961        0.00001839        0.00028840        0.00053774        0.00051542        0.00001732        0.00001595        0.00001858        0.00007128        0.00004833        0.00007460        0.00001887        0.00000093
      67         -0.656951        1.000000        0.00573106        0.00010459        0.00056599        0.00005318        0.00001734        0.00047371        0.00050247        0.00028896        0.00001694        0.00001587        0.00001867        0.00006853        0.00004512        0.00007188        0.00001590        0.00000087
      68         -0.655023        1.000000        0.08022700        0.00015470        0.00883703        0.00008341        0.00005313        0.00649932        0.00388722        0.00247360        0.00008344        0.00003086        0.00034335        0.00004456        0.00049629        0.00002921        0.00073988        0.00000152
      69         -0.655006        1.000000        0.08051038        0.00008528        0.00886871        0.00015572        0.00008328        0.00250457        0.00388600        0.00651103        0.00005325        0.00003042        0.00074718        0.00003009        0.00049637        0.00004427        0.00034191        0.00000153
      70         -0.654406        1.000000        0.01295388        0.00004420        0.00140221        0.00004471        0.00002075        0.00079774        0.00048155        0.00078592        0.00002055        0.00001843        0.00022866        0.00000869        0.00022743        0.00000830        0.00022990        0.00000000
      71         -0.651983        1.000000        0.00000022        0.00000058        0.00000003        0.00000058        0.00000033        0.00000108        0.00000000        0.00000115        0.00000032        0.00000000        0.00000081        0.00000026        0.00000000        0.00000027        0.00000078        0.00000008
      72         -0.650384        1.000000        0.00354421        0.00003735        0.00057423        0.00003688        0.00000610        0.00022334        0.00005631        0.00022892        0.00000591        0.00000459        0.00001500        0.00002611        0.00000986        0.00002624        0.00001423        0.00000000
      73         -0.649813        1.000000        0.00038849        0.00001570        0.00002831        0.00002674        0.00000572        0.00008205        0.00002504        0.00010354        0.00000277        0.00001156        0.00000012        0.00001233        0.00000309        0.00002143        0.00000010        0.00000052
      74         -0.649806        1.000000        0.00040031        0.00002712        0.00002933        0.00001583        0.00000272        0.00010397        0.00002538        0.00008380        0.00000585        0.00001161        0.00000019        0.00002179        0.00000314        0.00001231        0.00000008        0.00000051
      75         -0.649216        1.000000        0.00886202        0.00005326        0.00069445        0.00002364        0.00001820        0.00055234        0.00023161        0.00032185        0.00003472        0.00001245        0.00003061        0.00006609        0.00004183        0.00002330        0.00008688        0.00000396
      76         -0.649215        1.000000        0.00883818        0.00002385        0.00069166        0.00005347        0.00003477        0.00032296        0.00022978        0.00054788        0.00001841        0.00001245        0.00008676        0.00002331        0.00004141        0.00006644        0.00003090        0.00000404
      77         -0.645120        1.000000        0.00139714        0.00003277        0.00012208        0.00003271        0.00000692        0.00008005        0.00002180        0.00007871        0.00000696        0.00000249        0.00005023        0.00000390        0.00001487        0.00000402        0.00005088        0.00000000
      78         -0.642693        1.000000        0.00006947        0.00000841        0.00000819        0.00000347        0.00000066        0.00001491        0.00000050        0.00001175        0.00000105        0.00000269        0.00000218        0.00000302        0.00000012        0.00000140        0.00000169        0.00000016
      79         -0.642684        1.000000        0.00007527        0.00000355        0.00000864        0.00000828        0.00000108        0.00001169        0.00000059        0.00001556        0.00000064        0.00000275        0.00000193        0.00000146        0.00000013        0.00000307        0.00000199        0.00000016
      80         -0.640235        1.000000        0.00210801        0.00001871        0.00039440        0.00001880        0.00004158        0.00028463        0.00012738        0.00028569        0.00004197        0.00000045        0.00000244        0.00011571        0.00000527        0.00011525        0.00000246        0.00000000
      81         -0.639950        1.000000        0.00000042        0.00007384        0.00000006        0.00006671        0.00002828        0.00010499        0.00000007        0.00009712        0.00002731        0.00000000        0.00006223        0.00002073        0.00000001        0.00001927        0.00005795        0.00000558
      82         -0.639480        1.000000        0.00039056        0.00008142        0.00001267        0.00007218        0.00000618        0.00017111        0.00012915        0.00010829        0.00001728        0.00000289        0.00002211        0.00004046        0.00001352        0.00000891        0.00002272        0.00000078
      83         -0.639472        1.000000        0.00037591        0.00007024        0.00001262        0.00008384        0.00001661        0.00010481        0.00012746        0.00017438        0.00000665        0.00000291        0.00002136        0.00000915        0.00001344        0.00003995        0.00002426        0.00000082
      84         -0.638115        1.000000        0.00642566        0.00006791        0.00055941        0.00013552        0.00004279        0.00014354        0.00004468        0.00042800        0.00002076        0.00000384        0.00016926        0.00006664        0.00000857        0.00012793        0.00008973        0.00000828
      85         -0.638087        1.000000        0.00647249        0.00013804        0.00056640        0.00006958        0.00002107        0.00043183        0.00004455        0.00014644        0.00004297        0.00000389        0.00008902        0.00012716        0.00000855        0.00006868        0.00017251        0.00000826
      86         -0.636924        1.000000        0.00041040        0.00005549        0.00001174        0.00006200        0.00001255        0.00008318        0.00010387        0.00012059        0.00000481        0.00000208        0.00001120        0.00000673        0.00001193        0.00002887        0.00001116        0.00000007
      87         -0.636922        1.000000        0.00039718        0.00006147        0.00001111        0.00005414        0.00000479        0.00011840        0.00010260        0.00008117        0.00001237        0.00000195        0.00001116        0.00002850        0.00001162        0.00000643        0.00001121        0.00000007
      88         -0.636533        1.000000        0.00000028        0.00000132        0.00000002        0.00000092        0.00000066        0.00000157        0.00000001        0.00000110        0.00000063        0.00000000        0.00000141        0.00000031        0.00000000        0.00000020        0.00000116        0.00000072
      89         -0.636034        1.000000        0.00021413        0.00000478        0.00006387        0.00000484        0.00001776        0.00006923        0.00004524        0.00006895        0.00001781        0.00000055        0.00001608        0.00002327        0.00000488        0.00002233        0.00001487        0.00000000